#INFO: **** input file is /home/sharmagroup/sharmagroup/project/afqmc_ccpt/afqmc_ccpt_data/test/test_h2.py ****
from pyscf import gto, scf, cc

a = 2 # bond length in a cluster
d = 100 # distance between each cluster
na = 2  # size of a cluster (monomer)
nc = 1 # set as integer multiple of monomers
s = 0 # spin of each monomer
elmt = 'H'
atoms = ""
for n in range(nc*na):
    shift = ((n - n % na) // na) * (d-a)
    atoms += f"{elmt} {n*a+shift:.5f} 0.00000 0.00000 \n"

mol = gto.M(atom=atoms, basis="sto6g",spin=0, unit='bohr', verbose=4)
mol.build()

mf = scf.RHF(mol)
e = mf.kernel()

nfrozen = 0

mycc = cc.CCSD(mf,frozen=nfrozen)
mycc.kernel()

options = {'n_eql': 3,
           'n_prop_steps': 50,
            'n_ene_blocks': 1,
            'n_sr_blocks': 5,
            'n_blocks': 100,
            'n_walkers': 300,
            'seed': 6,
            'walker_type': 'rhf',
            'trial': 'ccd_pt',
            'dt':0.005,
            'free_projection':False,
            'ad_mode':None,
            'use_gpu': True
            }

from ad_afqmc.prop_unrestricted import prop_unrestricted
prop_unrestricted.prep_afqmc(mycc,options,chol_cut=1e-6)
prop_unrestricted.run_afqmc(options)
#INFO: ******************** input file end ********************


System: uname_result(system='Linux', node='sharmagroup-rn', release='6.14.0-37-generic', version='#37~24.04.1-Ubuntu SMP PREEMPT_DYNAMIC Thu Nov 20 10:25:38 UTC 2', machine='x86_64')  Threads 16
Python 3.11.14 (main, Oct 21 2025, 18:31:21) [GCC 11.2.0]
numpy 2.3.1  scipy 1.16.2  h5py 3.14.0
Date: Wed Jan 14 12:02:04 2026
PySCF version 2.11.0
PySCF path  /home/sharmagroup/sharmagroup/pyscf
GIT HEAD (branch master) 3d1768f5e33b144b606c3d2c81c12ee54d794501

[ENV] PYSCF_EXT_PATH /home/sharmagroup/sharmagroup/pyscf-forge
[CONFIG] conf_file None
[INPUT] verbose = 4
[INPUT] num. atoms = 2
[INPUT] num. electrons = 2
[INPUT] charge = 0
[INPUT] spin (= nelec alpha-beta = 2S) = 0
[INPUT] symmetry False subgroup None
[INPUT] Mole.unit = bohr
[INPUT] Symbol           X                Y                Z      unit          X                Y                Z       unit  Magmom
[INPUT]  1 H      0.000000000000   0.000000000000   0.000000000000 AA    0.000000000000   0.000000000000   0.000000000000 Bohr   0.0
[INPUT]  2 H      1.058354421840   0.000000000000   0.000000000000 AA    2.000000000000   0.000000000000   0.000000000000 Bohr   0.0

nuclear repulsion = 0.5
number of shells = 2
number of NR pGTOs = 12
number of NR cGTOs = 2
basis = sto6g
ecp = {}
CPU time:         0.20


******** <class 'pyscf.scf.hf.RHF'> ********
method = RHF
initial guess = minao
damping factor = 0
level_shift factor = 0
DIIS = <class 'pyscf.scf.diis.CDIIS'>
diis_start_cycle = 1
diis_space = 8
diis_damp = 0
SCF conv_tol = 1e-09
SCF conv_tol_grad = None
SCF max_cycles = 50
direct_scf = True
direct_scf_tol = 1e-13
chkfile to save SCF result = /tmp/tmpv7n_oxuu
max_memory 4000 MB (current use 109 MB)
Set gradient conv threshold to 3.16228e-05
Initial guess from minao.
init E= -0.684162336534415
  HOMO = -0.383125316267418  LUMO = 0.315906645079403
cycle= 1 E= -1.05642988216974  delta_E= -0.372  |g|= 8.88e-16  |ddm|= 0.914
  HOMO = -0.470060798713134  LUMO = 0.414892072584251
cycle= 2 E= -1.05642988216974  delta_E=    0  |g|= 3.33e-16  |ddm|= 1.73e-15
  HOMO = -0.470060798713134  LUMO = 0.414892072584251
Extra cycle  E= -1.05642988216974  delta_E=    0  |g|= 3.33e-16  |ddm|= 5.87e-16
converged SCF energy = -1.05642988216974

******** <class 'pyscf.cc.ccsd.CCSD'> ********
CC2 = 0
CCSD nocc = 1, nmo = 2
frozen orbitals 0
max_cycle = 50
direct = 0
conv_tol = 1e-07
conv_tol_normt = 1e-05
diis_space = 6
diis_start_cycle = 0
diis_start_energy_diff = 1e+09
max_memory 4000 MB (current use 118 MB)
Init t2, MP2 energy = -1.07922300433373  E_corr(MP2) -0.0227931221639971
Init E_corr(CCSD) = -0.0227931221639971
cycle = 1  E_corr(CCSD) = -0.0326975667461863  dE = -0.00990444458  norm(t1,t2) = 0.0493121
cycle = 2  E_corr(CCSD) = -0.0368184333418995  dE = -0.0041208666  norm(t1,t2) = 0.0205169
cycle = 3  E_corr(CCSD) = -0.0396601134784481  dE = -0.00284168014  norm(t1,t2) = 0.00837372
cycle = 4  E_corr(CCSD) = -0.0396456134348799  dE = 1.45000436e-05  norm(t1,t2) = 5.56565e-05
cycle = 5  E_corr(CCSD) = -0.0396437747286676  dE = 1.83870621e-06  norm(t1,t2) = 1.25292e-05
cycle = 6  E_corr(CCSD) = -0.0396430524216422  dE = 7.22307025e-07  norm(t1,t2) = 7.06045e-06
cycle = 7  E_corr(CCSD) = -0.0396426666617973  dE = 3.85759845e-07  norm(t1,t2) = 4.91213e-06
cycle = 8  E_corr(CCSD) = -0.0396413856661448  dE = 1.28099565e-06  norm(t1,t2) = 3.7648e-06
cycle = 9  E_corr(CCSD) = -0.0396414008852203  dE = -1.52190755e-08  norm(t1,t2) = 4.51791e-08
CCSD converged
E(CCSD) = -1.096071283054957  E_corr = -0.03964140088522034
#
# Preparing AFQMC calculation
# If you import pyscf cc modules and use MPI for AFQMC in the same script, finalize MPI before calling the AFQMC driver.
# Calculating Cholesky integrals
# Finished calculating Cholesky integrals
#
# Size of the correlation space:
# Number of electrons: (1, 1)
# Number of basis functions: 2
# Number of Cholesky vectors: 3
#
# Hostname: sharmagroup-rn
# System Type: Linux
# Machine Type: x86_64
# Processor: x86_64
# Using GPU.
# System: Linux
# Node Name: sharmagroup-rn
# Release: 6.14.0-37-generic
# Version: #37~24.04.1-Ubuntu SMP PREEMPT_DYNAMIC Thu Nov 20 10:25:38 UTC 2
# Machine: x86_64
# Processor: x86_64
# running AFQMC on GPU
# AFQMC script: /home/sharmagroup/sharmagroup/cs_afqmc/ad_afqmc/prop_unrestricted/run_afqmc_ccsd_pt.py
# Hostname: sharmagroup-rn
# System Type: Linux
# Machine Type: x86_64
# Processor: x86_64
# Using GPU.
# System: Linux
# Node Name: sharmagroup-rn
# Release: 6.14.0-37-generic
# Version: #37~24.04.1-Ubuntu SMP PREEMPT_DYNAMIC Thu Nov 20 10:25:38 UTC 2
# Machine: x86_64
# Processor: x86_64
# Hostname: sharmagroup-rn
# System Type: Linux
# Machine Type: x86_64
# Processor: x86_64
# Using GPU.
# System: Linux
# Node Name: sharmagroup-rn
# Release: 6.14.0-37-generic
# Version: #37~24.04.1-Ubuntu SMP PREEMPT_DYNAMIC Thu Nov 20 10:25:38 UTC 2
# Machine: x86_64
# Processor: x86_64
# Number of MPI ranks: 1
#
# norb: 2
# nelec: (1, 1)
#
# n_eql: 3
# n_prop_steps: 50
# n_ene_blocks: 1
# n_sr_blocks: 5
# n_blocks: 100
# n_walkers: 300
# seed: 6
# walker_type: rhf
# trial: ccd_pt
# dt: 0.005
# free_projection: False
# use_gpu: True
# n_exp_terms: 6
# orbital_rotation: True
# do_sr: True
# symmetry: False
# save_walkers: False
# ene0: 0.0
# n_batch: 1
# LNO: False
# orbE: 0
# maxError: 0.001
#
# Propagating with 300 walkers
# Equilibration sweeps:
#   Iter 	 Energy_HF 	 Energy_PT 	 Walltime
      0 	 -1.056430 	 -1.096071 	 1.64
      1 	 -1.088970 	 -1.096298 	 4.15
      2 	 -1.095025 	 -1.096111 	 6.30
      3 	 -1.092679 	 -1.096192 	 7.26
#
# Sampling sweeps:
#  Iter 	 Energy_HF 	 Energy_PT 	 error 	 	 Walltime
    10 	 	 -1.095596 	 -1.096090 	 0.000061 	 10.38
    20 	 	 -1.094194 	 -1.096141 	 0.000036 	 12.22
    30 	 	 -1.094193 	 -1.096141 	 0.000030 	 14.05
    40 	 	 -1.095066 	 -1.096109 	 0.000036 	 15.85
    50 	 	 -1.095719 	 -1.096085 	 0.000045 	 17.65
    60 	 	 -1.095503 	 -1.096093 	 0.000038 	 19.45
    70 	 	 -1.095245 	 -1.096103 	 0.000033 	 21.31
    80 	 	 -1.094881 	 -1.096116 	 0.000030 	 23.12
    90 	 	 -1.094799 	 -1.096119 	 0.000028 	 24.90
# Number of outliers in post: 1 
# Final Results:
# AFQMC/CCSD_PT energy (covariance): -1.096142 +/- 0.000021
# remove outliers in direct sampling:  2
# AFQMC/CCSD_PT energy (direct obs): -1.096127 +/- 0.000020
# total run time: 26.53
