#INFO: **** input file is /home/sharmagroup/sharmagroup/project/afqmc_ccpt/afqmc_ccpt_data/test/test_h2.py ****
from pyscf import gto, scf, cc

a = 2 # bond length in a cluster
d = 100 # distance between each cluster
na = 2  # size of a cluster (monomer)
nc = 8 # set as integer multiple of monomers
s = 0 # spin of each monomer
elmt = 'H'
atoms = ""
for n in range(nc*na):
    shift = ((n - n % na) // na) * (d-a)
    atoms += f"{elmt} {n*a+shift:.5f} 0.00000 0.00000 \n"

mol = gto.M(atom=atoms, basis="sto6g",spin=0, unit='bohr', verbose=4)
mol.build()

mf = scf.RHF(mol)
e = mf.kernel()

nfrozen = 0

mycc = cc.CCSD(mf,frozen=nfrozen)
mycc.kernel()

options = {'n_eql': 3,
           'n_prop_steps': 50,
            'n_ene_blocks': 1,
            'n_sr_blocks': 5,
            'n_blocks': 300,
            'n_walkers': 300,
            'seed': 6,
            'walker_type': 'rhf',
            'trial': 'ccd_pt',
            'dt':0.005,
            'free_projection':False,
            'ad_mode':None,
            'use_gpu': True
            }

from ad_afqmc.prop_unrestricted import prop_unrestricted
prop_unrestricted.prep_afqmc(mycc,options,chol_cut=1e-6)
prop_unrestricted.run_afqmc(options)
#INFO: ******************** input file end ********************


System: uname_result(system='Linux', node='sharmagroup-rn', release='6.14.0-37-generic', version='#37~24.04.1-Ubuntu SMP PREEMPT_DYNAMIC Thu Nov 20 10:25:38 UTC 2', machine='x86_64')  Threads 16
Python 3.11.14 (main, Oct 21 2025, 18:31:21) [GCC 11.2.0]
numpy 2.3.1  scipy 1.16.2  h5py 3.14.0
Date: Wed Jan 14 12:49:01 2026
PySCF version 2.11.0
PySCF path  /home/sharmagroup/sharmagroup/pyscf
GIT HEAD (branch master) 3d1768f5e33b144b606c3d2c81c12ee54d794501

[ENV] PYSCF_EXT_PATH /home/sharmagroup/sharmagroup/pyscf-forge
[CONFIG] conf_file None
[INPUT] verbose = 4
[INPUT] num. atoms = 16
[INPUT] num. electrons = 16
[INPUT] charge = 0
[INPUT] spin (= nelec alpha-beta = 2S) = 0
[INPUT] symmetry False subgroup None
[INPUT] Mole.unit = bohr
[INPUT] Symbol           X                Y                Z      unit          X                Y                Z       unit  Magmom
[INPUT]  1 H      0.000000000000   0.000000000000   0.000000000000 AA    0.000000000000   0.000000000000   0.000000000000 Bohr   0.0
[INPUT]  2 H      1.058354421840   0.000000000000   0.000000000000 AA    2.000000000000   0.000000000000   0.000000000000 Bohr   0.0
[INPUT]  3 H     53.976075513840   0.000000000000   0.000000000000 AA  102.000000000000   0.000000000000   0.000000000000 Bohr   0.0
[INPUT]  4 H     55.034429935680   0.000000000000   0.000000000000 AA  104.000000000000   0.000000000000   0.000000000000 Bohr   0.0
[INPUT]  5 H    107.952151027680   0.000000000000   0.000000000000 AA  204.000000000000   0.000000000000   0.000000000000 Bohr   0.0
[INPUT]  6 H    109.010505449520   0.000000000000   0.000000000000 AA  206.000000000000   0.000000000000   0.000000000000 Bohr   0.0
[INPUT]  7 H    161.928226541520   0.000000000000   0.000000000000 AA  306.000000000000   0.000000000000   0.000000000000 Bohr   0.0
[INPUT]  8 H    162.986580963360   0.000000000000   0.000000000000 AA  308.000000000000   0.000000000000   0.000000000000 Bohr   0.0
[INPUT]  9 H    215.904302055360   0.000000000000   0.000000000000 AA  408.000000000000   0.000000000000   0.000000000000 Bohr   0.0
[INPUT] 10 H    216.962656477200   0.000000000000   0.000000000000 AA  410.000000000000   0.000000000000   0.000000000000 Bohr   0.0
[INPUT] 11 H    269.880377569200   0.000000000000   0.000000000000 AA  510.000000000000   0.000000000000   0.000000000000 Bohr   0.0
[INPUT] 12 H    270.938731991040   0.000000000000   0.000000000000 AA  512.000000000000   0.000000000000   0.000000000000 Bohr   0.0
[INPUT] 13 H    323.856453083040   0.000000000000   0.000000000000 AA  612.000000000000   0.000000000000   0.000000000000 Bohr   0.0
[INPUT] 14 H    324.914807504880   0.000000000000   0.000000000000 AA  614.000000000000   0.000000000000   0.000000000000 Bohr   0.0
[INPUT] 15 H    377.832528596880   0.000000000000   0.000000000000 AA  714.000000000000   0.000000000000   0.000000000000 Bohr   0.0
[INPUT] 16 H    378.890883018720   0.000000000000   0.000000000000 AA  716.000000000000   0.000000000000   0.000000000000 Bohr   0.0

nuclear repulsion = 4.53899615902892
number of shells = 16
number of NR pGTOs = 96
number of NR cGTOs = 16
basis = sto6g
ecp = {}
CPU time:         0.20


******** <class 'pyscf.scf.hf.RHF'> ********
method = RHF
initial guess = minao
damping factor = 0
level_shift factor = 0
DIIS = <class 'pyscf.scf.diis.CDIIS'>
diis_start_cycle = 1
diis_space = 8
diis_damp = 0
SCF conv_tol = 1e-09
SCF conv_tol_grad = None
SCF max_cycles = 50
direct_scf = True
direct_scf_tol = 1e-13
chkfile to save SCF result = /tmp/tmp5e8iebin
max_memory 4000 MB (current use 109 MB)
Set gradient conv threshold to 3.16228e-05
Initial guess from minao.
init E= -5.47323077229564
  HOMO = -0.383696047913324  LUMO = 0.315044419142174
cycle= 1 E= -8.4514390562432  delta_E= -2.98  |g|= 1.38e-05  |ddm|= 2.59
  HOMO = -0.47006136917642  LUMO = 0.414890956050791
cycle= 2 E= -8.45143905635186  delta_E= -1.09e-10  |g|= 1.71e-07  |ddm|= 2.49e-05
  HOMO = -0.470061368449766  LUMO = 0.414890954904039
Extra cycle  E= -8.45143905635187  delta_E= -1.6e-14  |g|= 2.12e-09  |ddm|= 3.08e-07
converged SCF energy = -8.45143905635187

******** <class 'pyscf.cc.ccsd.CCSD'> ********
CC2 = 0
CCSD nocc = 8, nmo = 16
frozen orbitals 0
max_cycle = 50
direct = 0
conv_tol = 1e-07
conv_tol_normt = 1e-05
diis_space = 6
diis_start_cycle = 0
diis_start_energy_diff = 1e+09
max_memory 4000 MB (current use 119 MB)
Init t2, MP2 energy = -8.63378403385283  E_corr(MP2) -0.18234497750096
Init E_corr(CCSD) = -0.18234497750096
cycle = 1  E_corr(CCSD) = -0.261580534218898  dE = -0.0792355567  norm(t1,t2) = 0.139476
cycle = 2  E_corr(CCSD) = -0.294547467015868  dE = -0.0329669328  norm(t1,t2) = 0.0580305
cycle = 3  E_corr(CCSD) = -0.317280908150085  dE = -0.0227334411  norm(t1,t2) = 0.0236845
cycle = 4  E_corr(CCSD) = -0.317164907801645  dE = 0.000116000348  norm(t1,t2) = 0.00015742
cycle = 5  E_corr(CCSD) = -0.317150198151935  dE = 1.47096497e-05  norm(t1,t2) = 3.5438e-05
cycle = 6  E_corr(CCSD) = -0.317144419695699  dE = 5.77845624e-06  norm(t1,t2) = 1.997e-05
cycle = 7  E_corr(CCSD) = -0.317141333616983  dE = 3.08607872e-06  norm(t1,t2) = 1.38936e-05
cycle = 8  E_corr(CCSD) = -0.317131085651735  dE = 1.02479652e-05  norm(t1,t2) = 1.06484e-05
cycle = 9  E_corr(CCSD) = -0.317131207403415  dE = -1.2175168e-07  norm(t1,t2) = 1.27795e-07
cycle = 10  E_corr(CCSD) = -0.317131207191057  dE = 2.12357798e-10  norm(t1,t2) = 4.90466e-10
CCSD converged
E(CCSD) = -8.76857026354293  E_corr = -0.3171312071910572
#
# Preparing AFQMC calculation
# If you import pyscf cc modules and use MPI for AFQMC in the same script, finalize MPI before calling the AFQMC driver.
# Calculating Cholesky integrals
# Finished calculating Cholesky integrals
#
# Size of the correlation space:
# Number of electrons: (8, 8)
# Number of basis functions: 16
# Number of Cholesky vectors: 24
#
# Hostname: sharmagroup-rn
# System Type: Linux
# Machine Type: x86_64
# Processor: x86_64
# Using GPU.
# System: Linux
# Node Name: sharmagroup-rn
# Release: 6.14.0-37-generic
# Version: #37~24.04.1-Ubuntu SMP PREEMPT_DYNAMIC Thu Nov 20 10:25:38 UTC 2
# Machine: x86_64
# Processor: x86_64
# running AFQMC on GPU
# AFQMC script: /home/sharmagroup/sharmagroup/cs_afqmc/ad_afqmc/prop_unrestricted/run_afqmc_ccsd_pt.py
# Hostname: sharmagroup-rn
# System Type: Linux
# Machine Type: x86_64
# Processor: x86_64
# Using GPU.
# System: Linux
# Node Name: sharmagroup-rn
# Release: 6.14.0-37-generic
# Version: #37~24.04.1-Ubuntu SMP PREEMPT_DYNAMIC Thu Nov 20 10:25:38 UTC 2
# Machine: x86_64
# Processor: x86_64
# Hostname: sharmagroup-rn
# System Type: Linux
# Machine Type: x86_64
# Processor: x86_64
# Using GPU.
# System: Linux
# Node Name: sharmagroup-rn
# Release: 6.14.0-37-generic
# Version: #37~24.04.1-Ubuntu SMP PREEMPT_DYNAMIC Thu Nov 20 10:25:38 UTC 2
# Machine: x86_64
# Processor: x86_64
# Number of MPI ranks: 1
#
# norb: 16
# nelec: (8, 8)
#
# n_eql: 3
# n_prop_steps: 50
# n_ene_blocks: 1
# n_sr_blocks: 5
# n_blocks: 300
# n_walkers: 300
# seed: 6
# walker_type: rhf
# trial: ccd_pt
# dt: 0.005
# free_projection: False
# use_gpu: True
# n_exp_terms: 6
# orbital_rotation: True
# do_sr: True
# symmetry: False
# save_walkers: False
# ene0: 0.0
# n_batch: 1
# LNO: False
# orbE: 0
# maxError: 0.001
#
# Propagating with 300 walkers
# Equilibration sweeps:
#   Iter 	 Energy_HF 	 Energy_PT 	 Walltime
      0 	 -8.451439 	 -8.768570 	 2.20
      1 	 -8.735199 	 -8.770624 	 8.13
      2 	 -8.734219 	 -8.768640 	 13.66
      3 	 -8.755725 	 -8.766878 	 17.53
#
# Sampling sweeps:
#  Iter 	 Energy_HF 	 Energy_PT 	 error 	 	 Walltime
    30 	 	 -8.749485 	 -8.767096 	 0.001710 	 34.27
    60 	 	 -8.749020 	 -8.768707 	 0.000940 	 48.92
    90 	 	 -8.746182 	 -8.769080 	 0.000667 	 63.59
   120 	 	 -8.746869 	 -8.769197 	 0.000580 	 78.20
   150 	 	 -8.747697 	 -8.769098 	 0.000544 	 92.86
   180 	 	 -8.747751 	 -8.769136 	 0.000474 	 107.44
   210 	 	 -8.748223 	 -8.768901 	 0.000424 	 122.03
   240 	 	 -8.749176 	 -8.769000 	 0.000437 	 136.66
   270 	 	 -8.748588 	 -8.768987 	 0.000395 	 151.25
# Number of outliers in post: 2 
# Final Results:
# AFQMC/CCSD_PT energy (covariance): -8.769336 +/- 0.000316
# remove outliers in direct sampling:  3
# AFQMC/CCSD_PT energy (direct obs): -8.768913 +/- 0.000277
# total run time: 165.40
